t 0.00505 /NodeList/18/DeviceList/0/$ns3::WifiNetDevice/Phy/State/Tx DsssRate1Mbps ns3::WifiMacHeader (DATA ToDS=0, FromDS=0, MoreFrag=0, Retry=0, PowerManagement=0, MoreData=0 Duration/ID=0us, DA=ff:ff:ff:ff:ff:ff, SA=00:00:00:00:00:13, BSSID=00:00:00:00:00:13, FragNumber=0, SeqNumber=0) ns3::LlcSnapHeader (type 0x800) ns3::Ipv4Header (tos 0x0 DSCP Default ECN Not-ECT ttl 1 id 0 protocol 17 offset (bytes) 0 flags [none] length: 48 192.168.1.19 > 192.168.1.255) ns3::UdpHeader (length: 28 654 > 654) ns3::aodv::TypeHeader (RREP) ns3::aodv::RrepHeader (destination: ipv4 192.168.1.19 sequence number 0 source ipv4 192.168.1.19 lifetime 2000 acknowledgment required flag 0) 
t 0.00805 /NodeList/9/DeviceList/0/$ns3::WifiNetDevice/Phy/State/Tx DsssRate1Mbps ns3::WifiMacHeader (DATA ToDS=0, FromDS=0, MoreFrag=0, Retry=0, PowerManagement=0, MoreData=0 Duration/ID=0us, DA=ff:ff:ff:ff:ff:ff, SA=00:00:00:00:00:0a, BSSID=00:00:00:00:00:0a, FragNumber=0, SeqNumber=0) ns3::LlcSnapHeader (type 0x800) ns3::Ipv4Header (tos 0x0 DSCP Default ECN Not-ECT ttl 1 id 0 protocol 17 offset (bytes) 0 flags [none] length: 48 192.168.1.10 > 192.168.1.255) ns3::UdpHeader (length: 28 654 > 654) ns3::aodv::TypeHeader (RREP) ns3::aodv::RrepHeader (destination: ipv4 192.168.1.10 sequence number 0 source ipv4 192.168.1.10 lifetime 2000 acknowledgment required flag 0) 
t 0.01305 /NodeList/17/DeviceList/0/$ns3::WifiNetDevice/Phy/State/Tx DsssRate1Mbps ns3::WifiMacHeader (DATA ToDS=0, FromDS=0, MoreFrag=0, Retry=0, PowerManagement=0, MoreData=0 Duration/ID=0us, DA=ff:ff:ff:ff:ff:ff, SA=00:00:00:00:00:12, BSSID=00:00:00:00:00:12, FragNumber=0, SeqNumber=0) ns3::LlcSnapHeader (type 0x800) ns3::Ipv4Header (tos 0x0 DSCP Default ECN Not-ECT ttl 1 id 0 protocol 17 offset (bytes) 0 flags [none] length: 48 192.168.1.18 > 192.168.1.255) ns3::UdpHeader (length: 28 654 > 654) ns3::aodv::TypeHeader (RREP) ns3::aodv::RrepHeader (destination: ipv4 192.168.1.18 sequence number 0 source ipv4 192.168.1.18 lifetime 2000 acknowledgment required flag 0) 
t 0.01405 /NodeList/0/DeviceList/0/$ns3::WifiNetDevice/Phy/State/Tx DsssRate1Mbps ns3::WifiMacHeader (DATA ToDS=0, FromDS=0, MoreFrag=0, Retry=0, PowerManagement=0, MoreData=0 Duration/ID=0us, DA=ff:ff:ff:ff:ff:ff, SA=00:00:00:00:00:01, BSSID=00:00:00:00:00:01, FragNumber=0, SeqNumber=0) ns3::LlcSnapHeader (type 0x800) ns3::Ipv4Header (tos 0x0 DSCP Default ECN Not-ECT ttl 1 id 0 protocol 17 offset (bytes) 0 flags [none] length: 48 192.168.1.1 > 192.168.1.255) ns3::UdpHeader (length: 28 654 > 654) ns3::aodv::TypeHeader (RREP) ns3::aodv::RrepHeader (destination: ipv4 192.168.1.1 sequence number 0 source ipv4 192.168.1.1 lifetime 2000 acknowledgment required flag 0) 
t 0.01405 /NodeList/8/DeviceList/0/$ns3::WifiNetDevice/Phy/State/Tx DsssRate1Mbps ns3::WifiMacHeader (DATA ToDS=0, FromDS=0, MoreFrag=0, Retry=0, PowerManagement=0, MoreData=0 Duration/ID=0us, DA=ff:ff:ff:ff:ff:ff, SA=00:00:00:00:00:09, BSSID=00:00:00:00:00:09, FragNumber=0, SeqNumber=0) ns3::LlcSnapHeader (type 0x800) ns3::Ipv4Header (tos 0x0 DSCP Default ECN Not-ECT ttl 1 id 0 protocol 17 offset (bytes) 0 flags [none] length: 48 192.168.1.9 > 192.168.1.255) ns3::UdpHeader (length: 28 654 > 654) ns3::aodv::TypeHeader (RREP) ns3::aodv::RrepHeader (destination: ipv4 192.168.1.9 sequence number 0 source ipv4 192.168.1.9 lifetime 2000 acknowledgment required flag 0) 
t 0.01705 /NodeList/14/DeviceList/0/$ns3::WifiNetDevice/Phy/State/Tx DsssRate1Mbps ns3::WifiMacHeader (DATA ToDS=0, FromDS=0, MoreFrag=0, Retry=0, PowerManagement=0, MoreData=0 Duration/ID=0us, DA=ff:ff:ff:ff:ff:ff, SA=00:00:00:00:00:0f, BSSID=00:00:00:00:00:0f, FragNumber=0, SeqNumber=0) ns3::LlcSnapHeader (type 0x800) ns3::Ipv4Header (tos 0x0 DSCP Default ECN Not-ECT ttl 1 id 0 protocol 17 offset (bytes) 0 flags [none] length: 48 192.168.1.15 > 192.168.1.255) ns3::UdpHeader (length: 28 654 > 654) ns3::aodv::TypeHeader (RREP) ns3::aodv::RrepHeader (destination: ipv4 192.168.1.15 sequence number 0 source ipv4 192.168.1.15 lifetime 2000 acknowledgment required flag 0) 
t 0.02105 /NodeList/16/DeviceList/0/$ns3::WifiNetDevice/Phy/State/Tx DsssRate1Mbps ns3::WifiMacHeader (DATA ToDS=0, FromDS=0, MoreFrag=0, Retry=0, PowerManagement=0, MoreData=0 Duration/ID=0us, DA=ff:ff:ff:ff:ff:ff, SA=00:00:00:00:00:11, BSSID=00:00:00:00:00:11, FragNumber=0, SeqNumber=0) ns3::LlcSnapHeader (type 0x800) ns3::Ipv4Header (tos 0x0 DSCP Default ECN Not-ECT ttl 1 id 0 protocol 17 offset (bytes) 0 flags [none] length: 48 192.168.1.17 > 192.168.1.255) ns3::UdpHeader (length: 28 654 > 654) ns3::aodv::TypeHeader (RREP) ns3::aodv::RrepHeader (destination: ipv4 192.168.1.17 sequence number 0 source ipv4 192.168.1.17 lifetime 2000 acknowledgment required flag 0) 
t 0.02205 /NodeList/15/DeviceList/0/$ns3::WifiNetDevice/Phy/State/Tx DsssRate1Mbps ns3::WifiMacHeader (DATA ToDS=0, FromDS=0, MoreFrag=0, Retry=0, PowerManagement=0, MoreData=0 Duration/ID=0us, DA=ff:ff:ff:ff:ff:ff, SA=00:00:00:00:00:10, BSSID=00:00:00:00:00:10, FragNumber=0, SeqNumber=0) ns3::LlcSnapHeader (type 0x800) ns3::Ipv4Header (tos 0x0 DSCP Default ECN Not-ECT ttl 1 id 0 protocol 17 offset (bytes) 0 flags [none] length: 48 192.168.1.16 > 192.168.1.255) ns3::UdpHeader (length: 28 654 > 654) ns3::aodv::TypeHeader (RREP) ns3::aodv::RrepHeader (destination: ipv4 192.168.1.16 sequence number 0 source ipv4 192.168.1.16 lifetime 2000 acknowledgment required flag 0) 
t 0.02405 /NodeList/6/DeviceList/0/$ns3::WifiNetDevice/Phy/State/Tx DsssRate1Mbps ns3::WifiMacHeader (DATA ToDS=0, FromDS=0, MoreFrag=0, Retry=0, PowerManagement=0, MoreData=0 Duration/ID=0us, DA=ff:ff:ff:ff:ff:ff, SA=00:00:00:00:00:07, BSSID=00:00:00:00:00:07, FragNumber=0, SeqNumber=0) ns3::LlcSnapHeader (type 0x800) ns3::Ipv4Header (tos 0x0 DSCP Default ECN Not-ECT ttl 1 id 0 protocol 17 offset (bytes) 0 flags [none] length: 48 192.168.1.7 > 192.168.1.255) ns3::UdpHeader (length: 28 654 > 654) ns3::aodv::TypeHeader (RREP) ns3::aodv::RrepHeader (destination: ipv4 192.168.1.7 sequence number 0 source ipv4 192.168.1.7 lifetime 2000 acknowledgment required flag 0) 
t 0.03005 /NodeList/11/DeviceList/0/$ns3::WifiNetDevice/Phy/State/Tx DsssRate1Mbps ns3::WifiMacHeader (DATA ToDS=0, FromDS=0, MoreFrag=0, Retry=0, PowerManagement=0, MoreData=0 Duration/ID=0us, DA=ff:ff:ff:ff:ff:ff, SA=00:00:00:00:00:0c, BSSID=00:00:00:00:00:0c, FragNumber=0, SeqNumber=0) ns3::LlcSnapHeader (type 0x800) ns3::Ipv4Header (tos 0x0 DSCP Default ECN Not-ECT ttl 1 id 0 protocol 17 offset (bytes) 0 flags [none] length: 48 192.168.1.12 > 192.168.1.255) ns3::UdpHeader (length: 28 654 > 654) ns3::aodv::TypeHeader (RREP) ns3::aodv::RrepHeader (destination: ipv4 192.168.1.12 sequence number 0 source ipv4 192.168.1.12 lifetime 2000 acknowledgment required flag 0) 
t 0.03505 /NodeList/3/DeviceList/0/$ns3::WifiNetDevice/Phy/State/Tx DsssRate1Mbps ns3::WifiMacHeader (DATA ToDS=0, FromDS=0, MoreFrag=0, Retry=0, PowerManagement=0, MoreData=0 Duration/ID=0us, DA=ff:ff:ff:ff:ff:ff, SA=00:00:00:00:00:04, BSSID=00:00:00:00:00:04, FragNumber=0, SeqNumber=0) ns3::LlcSnapHeader (type 0x800) ns3::Ipv4Header (tos 0x0 DSCP Default ECN Not-ECT ttl 1 id 0 protocol 17 offset (bytes) 0 flags [none] length: 48 192.168.1.4 > 192.168.1.255) ns3::UdpHeader (length: 28 654 > 654) ns3::aodv::TypeHeader (RREP) ns3::aodv::RrepHeader (destination: ipv4 192.168.1.4 sequence number 0 source ipv4 192.168.1.4 lifetime 2000 acknowledgment required flag 0) 
t 0.05605 /NodeList/13/DeviceList/0/$ns3::WifiNetDevice/Phy/State/Tx DsssRate1Mbps ns3::WifiMacHeader (DATA ToDS=0, FromDS=0, MoreFrag=0, Retry=0, PowerManagement=0, MoreData=0 Duration/ID=0us, DA=ff:ff:ff:ff:ff:ff, SA=00:00:00:00:00:0e, BSSID=00:00:00:00:00:0e, FragNumber=0, SeqNumber=0) ns3::LlcSnapHeader (type 0x800) ns3::Ipv4Header (tos 0x0 DSCP Default ECN Not-ECT ttl 1 id 0 protocol 17 offset (bytes) 0 flags [none] length: 48 192.168.1.14 > 192.168.1.255) ns3::UdpHeader (length: 28 654 > 654) ns3::aodv::TypeHeader (RREP) ns3::aodv::RrepHeader (destination: ipv4 192.168.1.14 sequence number 0 source ipv4 192.168.1.14 lifetime 2000 acknowledgment required flag 0) 
t 0.05705 /NodeList/10/DeviceList/0/$ns3::WifiNetDevice/Phy/State/Tx DsssRate1Mbps ns3::WifiMacHeader (DATA ToDS=0, FromDS=0, MoreFrag=0, Retry=0, PowerManagement=0, MoreData=0 Duration/ID=0us, DA=ff:ff:ff:ff:ff:ff, SA=00:00:00:00:00:0b, BSSID=00:00:00:00:00:0b, FragNumber=0, SeqNumber=0) ns3::LlcSnapHeader (type 0x800) ns3::Ipv4Header (tos 0x0 DSCP Default ECN Not-ECT ttl 1 id 0 protocol 17 offset (bytes) 0 flags [none] length: 48 192.168.1.11 > 192.168.1.255) ns3::UdpHeader (length: 28 654 > 654) ns3::aodv::TypeHeader (RREP) ns3::aodv::RrepHeader (destination: ipv4 192.168.1.11 sequence number 0 source ipv4 192.168.1.11 lifetime 2000 acknowledgment required flag 0) 
t 0.06205 /NodeList/5/DeviceList/0/$ns3::WifiNetDevice/Phy/State/Tx DsssRate1Mbps ns3::WifiMacHeader (DATA ToDS=0, FromDS=0, MoreFrag=0, Retry=0, PowerManagement=0, MoreData=0 Duration/ID=0us, DA=ff:ff:ff:ff:ff:ff, SA=00:00:00:00:00:06, BSSID=00:00:00:00:00:06, FragNumber=0, SeqNumber=0) ns3::LlcSnapHeader (type 0x800) ns3::Ipv4Header (tos 0x0 DSCP Default ECN Not-ECT ttl 1 id 0 protocol 17 offset (bytes) 0 flags [none] length: 48 192.168.1.6 > 192.168.1.255) ns3::UdpHeader (length: 28 654 > 654) ns3::aodv::TypeHeader (RREP) ns3::aodv::RrepHeader (destination: ipv4 192.168.1.6 sequence number 0 source ipv4 192.168.1.6 lifetime 2000 acknowledgment required flag 0) 
t 0.07005 /NodeList/19/DeviceList/0/$ns3::WifiNetDevice/Phy/State/Tx DsssRate1Mbps ns3::WifiMacHeader (DATA ToDS=0, FromDS=0, MoreFrag=0, Retry=0, PowerManagement=0, MoreData=0 Duration/ID=0us, DA=ff:ff:ff:ff:ff:ff, SA=00:00:00:00:00:14, BSSID=00:00:00:00:00:14, FragNumber=0, SeqNumber=0) ns3::LlcSnapHeader (type 0x800) ns3::Ipv4Header (tos 0x0 DSCP Default ECN Not-ECT ttl 1 id 0 protocol 17 offset (bytes) 0 flags [none] length: 48 192.168.1.20 > 192.168.1.255) ns3::UdpHeader (length: 28 654 > 654) ns3::aodv::TypeHeader (RREP) ns3::aodv::RrepHeader (destination: ipv4 192.168.1.20 sequence number 0 source ipv4 192.168.1.20 lifetime 2000 acknowledgment required flag 0) 
t 0.07605 /NodeList/1/DeviceList/0/$ns3::WifiNetDevice/Phy/State/Tx DsssRate1Mbps ns3::WifiMacHeader (DATA ToDS=0, FromDS=0, MoreFrag=0, Retry=0, PowerManagement=0, MoreData=0 Duration/ID=0us, DA=ff:ff:ff:ff:ff:ff, SA=00:00:00:00:00:02, BSSID=00:00:00:00:00:02, FragNumber=0, SeqNumber=0) ns3::LlcSnapHeader (type 0x800) ns3::Ipv4Header (tos 0x0 DSCP Default ECN Not-ECT ttl 1 id 0 protocol 17 offset (bytes) 0 flags [none] length: 48 192.168.1.2 > 192.168.1.255) ns3::UdpHeader (length: 28 654 > 654) ns3::aodv::TypeHeader (RREP) ns3::aodv::RrepHeader (destination: ipv4 192.168.1.2 sequence number 0 source ipv4 192.168.1.2 lifetime 2000 acknowledgment required flag 0) 
t 0.07905 /NodeList/2/DeviceList/0/$ns3::WifiNetDevice/Phy/State/Tx DsssRate1Mbps ns3::WifiMacHeader (DATA ToDS=0, FromDS=0, MoreFrag=0, Retry=0, PowerManagement=0, MoreData=0 Duration/ID=0us, DA=ff:ff:ff:ff:ff:ff, SA=00:00:00:00:00:03, BSSID=00:00:00:00:00:03, FragNumber=0, SeqNumber=0) ns3::LlcSnapHeader (type 0x800) ns3::Ipv4Header (tos 0x0 DSCP Default ECN Not-ECT ttl 1 id 0 protocol 17 offset (bytes) 0 flags [none] length: 48 192.168.1.3 > 192.168.1.255) ns3::UdpHeader (length: 28 654 > 654) ns3::aodv::TypeHeader (RREP) ns3::aodv::RrepHeader (destination: ipv4 192.168.1.3 sequence number 0 source ipv4 192.168.1.3 lifetime 2000 acknowledgment required flag 0) 
t 0.08605 /NodeList/12/DeviceList/0/$ns3::WifiNetDevice/Phy/State/Tx DsssRate1Mbps ns3::WifiMacHeader (DATA ToDS=0, FromDS=0, MoreFrag=0, Retry=0, PowerManagement=0, MoreData=0 Duration/ID=0us, DA=ff:ff:ff:ff:ff:ff, SA=00:00:00:00:00:0d, BSSID=00:00:00:00:00:0d, FragNumber=0, SeqNumber=0) ns3::LlcSnapHeader (type 0x800) ns3::Ipv4Header (tos 0x0 DSCP Default ECN Not-ECT ttl 1 id 0 protocol 17 offset (bytes) 0 flags [none] length: 48 192.168.1.13 > 192.168.1.255) ns3::UdpHeader (length: 28 654 > 654) ns3::aodv::TypeHeader (RREP) ns3::aodv::RrepHeader (destination: ipv4 192.168.1.13 sequence number 0 source ipv4 192.168.1.13 lifetime 2000 acknowledgment required flag 0) 
t 0.09205 /NodeList/4/DeviceList/0/$ns3::WifiNetDevice/Phy/State/Tx DsssRate1Mbps ns3::WifiMacHeader (DATA ToDS=0, FromDS=0, MoreFrag=0, Retry=0, PowerManagement=0, MoreData=0 Duration/ID=0us, DA=ff:ff:ff:ff:ff:ff, SA=00:00:00:00:00:05, BSSID=00:00:00:00:00:05, FragNumber=0, SeqNumber=0) ns3::LlcSnapHeader (type 0x800) ns3::Ipv4Header (tos 0x0 DSCP Default ECN Not-ECT ttl 1 id 0 protocol 17 offset (bytes) 0 flags [none] length: 48 192.168.1.5 > 192.168.1.255) ns3::UdpHeader (length: 28 654 > 654) ns3::aodv::TypeHeader (RREP) ns3::aodv::RrepHeader (destination: ipv4 192.168.1.5 sequence number 0 source ipv4 192.168.1.5 lifetime 2000 acknowledgment required flag 0) 
t 0.09905 /NodeList/7/DeviceList/0/$ns3::WifiNetDevice/Phy/State/Tx DsssRate1Mbps ns3::WifiMacHeader (DATA ToDS=0, FromDS=0, MoreFrag=0, Retry=0, PowerManagement=0, MoreData=0 Duration/ID=0us, DA=ff:ff:ff:ff:ff:ff, SA=00:00:00:00:00:08, BSSID=00:00:00:00:00:08, FragNumber=0, SeqNumber=0) ns3::LlcSnapHeader (type 0x800) ns3::Ipv4Header (tos 0x0 DSCP Default ECN Not-ECT ttl 1 id 0 protocol 17 offset (bytes) 0 flags [none] length: 48 192.168.1.8 > 192.168.1.255) ns3::UdpHeader (length: 28 654 > 654) ns3::aodv::TypeHeader (RREP) ns3::aodv::RrepHeader (destination: ipv4 192.168.1.8 sequence number 0 source ipv4 192.168.1.8 lifetime 2000 acknowledgment required flag 0) 
t 1.00705 /NodeList/18/DeviceList/0/$ns3::WifiNetDevice/Phy/State/Tx DsssRate1Mbps ns3::WifiMacHeader (DATA ToDS=0, FromDS=0, MoreFrag=0, Retry=0, PowerManagement=0, MoreData=0 Duration/ID=0us, DA=ff:ff:ff:ff:ff:ff, SA=00:00:00:00:00:13, BSSID=00:00:00:00:00:13, FragNumber=0, SeqNumber=1) ns3::LlcSnapHeader (type 0x800) ns3::Ipv4Header (tos 0x0 DSCP Default ECN Not-ECT ttl 1 id 1 protocol 17 offset (bytes) 0 flags [none] length: 48 192.168.1.19 > 192.168.1.255) ns3::UdpHeader (length: 28 654 > 654) ns3::aodv::TypeHeader (RREP) ns3::aodv::RrepHeader (destination: ipv4 192.168.1.19 sequence number 0 source ipv4 192.168.1.19 lifetime 2000 acknowledgment required flag 0) 
t 1.01005 /NodeList/9/DeviceList/0/$ns3::WifiNetDevice/Phy/State/Tx DsssRate1Mbps ns3::WifiMacHeader (DATA ToDS=0, FromDS=0, MoreFrag=0, Retry=0, PowerManagement=0, MoreData=0 Duration/ID=0us, DA=ff:ff:ff:ff:ff:ff, SA=00:00:00:00:00:0a, BSSID=00:00:00:00:00:0a, FragNumber=0, SeqNumber=1) ns3::LlcSnapHeader (type 0x800) ns3::Ipv4Header (tos 0x0 DSCP Default ECN Not-ECT ttl 1 id 1 protocol 17 offset (bytes) 0 flags [none] length: 48 192.168.1.10 > 192.168.1.255) ns3::UdpHeader (length: 28 654 > 654) ns3::aodv::TypeHeader (RREP) ns3::aodv::RrepHeader (destination: ipv4 192.168.1.10 sequence number 0 source ipv4 192.168.1.10 lifetime 2000 acknowledgment required flag 0) 
t 1.01305 /NodeList/0/DeviceList/0/$ns3::WifiNetDevice/Phy/State/Tx DsssRate1Mbps ns3::WifiMacHeader (DATA ToDS=0, FromDS=0, MoreFrag=0, Retry=0, PowerManagement=0, MoreData=0 Duration/ID=0us, DA=ff:ff:ff:ff:ff:ff, SA=00:00:00:00:00:01, BSSID=00:00:00:00:00:01, FragNumber=0, SeqNumber=1) ns3::LlcSnapHeader (type 0x800) ns3::Ipv4Header (tos 0x0 DSCP Default ECN Not-ECT ttl 1 id 1 protocol 17 offset (bytes) 0 flags [none] length: 48 192.168.1.1 > 192.168.1.255) ns3::UdpHeader (length: 28 654 > 654) ns3::aodv::TypeHeader (RREP) ns3::aodv::RrepHeader (destination: ipv4 192.168.1.1 sequence number 0 source ipv4 192.168.1.1 lifetime 2000 acknowledgment required flag 0) 
t 1.01705 /NodeList/8/DeviceList/0/$ns3::WifiNetDevice/Phy/State/Tx DsssRate1Mbps ns3::WifiMacHeader (DATA ToDS=0, FromDS=0, MoreFrag=0, Retry=0, PowerManagement=0, MoreData=0 Duration/ID=0us, DA=ff:ff:ff:ff:ff:ff, SA=00:00:00:00:00:09, BSSID=00:00:00:00:00:09, FragNumber=0, SeqNumber=1) ns3::LlcSnapHeader (type 0x800) ns3::Ipv4Header (tos 0x0 DSCP Default ECN Not-ECT ttl 1 id 1 protocol 17 offset (bytes) 0 flags [none] length: 48 192.168.1.9 > 192.168.1.255) ns3::UdpHeader (length: 28 654 > 654) ns3::aodv::TypeHeader (RREP) ns3::aodv::RrepHeader (destination: ipv4 192.168.1.9 sequence number 0 source ipv4 192.168.1.9 lifetime 2000 acknowledgment required flag 0) 
t 1.01905 /NodeList/17/DeviceList/0/$ns3::WifiNetDevice/Phy/State/Tx DsssRate1Mbps ns3::WifiMacHeader (DATA ToDS=0, FromDS=0, MoreFrag=0, Retry=0, PowerManagement=0, MoreData=0 Duration/ID=0us, DA=ff:ff:ff:ff:ff:ff, SA=00:00:00:00:00:12, BSSID=00:00:00:00:00:12, FragNumber=0, SeqNumber=1) ns3::LlcSnapHeader (type 0x800) ns3::Ipv4Header (tos 0x0 DSCP Default ECN Not-ECT ttl 1 id 1 protocol 17 offset (bytes) 0 flags [none] length: 48 192.168.1.18 > 192.168.1.255) ns3::UdpHeader (length: 28 654 > 654) ns3::aodv::TypeHeader (RREP) ns3::aodv::RrepHeader (destination: ipv4 192.168.1.18 sequence number 0 source ipv4 192.168.1.18 lifetime 2000 acknowledgment required flag 0) 
t 1.02005 /NodeList/14/DeviceList/0/$ns3::WifiNetDevice/Phy/State/Tx DsssRate1Mbps ns3::WifiMacHeader (DATA ToDS=0, FromDS=0, MoreFrag=0, Retry=0, PowerManagement=0, MoreData=0 Duration/ID=0us, DA=ff:ff:ff:ff:ff:ff, SA=00:00:00:00:00:0f, BSSID=00:00:00:00:00:0f, FragNumber=0, SeqNumber=1) ns3::LlcSnapHeader (type 0x800) ns3::Ipv4Header (tos 0x0 DSCP Default ECN Not-ECT ttl 1 id 1 protocol 17 offset (bytes) 0 flags [none] length: 48 192.168.1.15 > 192.168.1.255) ns3::UdpHeader (length: 28 654 > 654) ns3::aodv::TypeHeader (RREP) ns3::aodv::RrepHeader (destination: ipv4 192.168.1.15 sequence number 0 source ipv4 192.168.1.15 lifetime 2000 acknowledgment required flag 0) 
t 1.02205 /NodeList/6/DeviceList/0/$ns3::WifiNetDevice/Phy/State/Tx DsssRate1Mbps ns3::WifiMacHeader (DATA ToDS=0, FromDS=0, MoreFrag=0, Retry=0, PowerManagement=0, MoreData=0 Duration/ID=0us, DA=ff:ff:ff:ff:ff:ff, SA=00:00:00:00:00:07, BSSID=00:00:00:00:00:07, FragNumber=0, SeqNumber=1) ns3::LlcSnapHeader (type 0x800) ns3::Ipv4Header (tos 0x0 DSCP Default ECN Not-ECT ttl 1 id 1 protocol 17 offset (bytes) 0 flags [none] length: 48 192.168.1.7 > 192.168.1.255) ns3::UdpHeader (length: 28 654 > 654) ns3::aodv::TypeHeader (RREP) ns3::aodv::RrepHeader (destination: ipv4 192.168.1.7 sequence number 0 source ipv4 192.168.1.7 lifetime 2000 acknowledgment required flag 0) 
t 1.02305 /NodeList/15/DeviceList/0/$ns3::WifiNetDevice/Phy/State/Tx DsssRate1Mbps ns3::WifiMacHeader (DATA ToDS=0, FromDS=0, MoreFrag=0, Retry=0, PowerManagement=0, MoreData=0 Duration/ID=0us, DA=ff:ff:ff:ff:ff:ff, SA=00:00:00:00:00:10, BSSID=00:00:00:00:00:10, FragNumber=0, SeqNumber=1) ns3::LlcSnapHeader (type 0x800) ns3::Ipv4Header (tos 0x0 DSCP Default ECN Not-ECT ttl 1 id 1 protocol 17 offset (bytes) 0 flags [none] length: 48 192.168.1.16 > 192.168.1.255) ns3::UdpHeader (length: 28 654 > 654) ns3::aodv::TypeHeader (RREP) ns3::aodv::RrepHeader (destination: ipv4 192.168.1.16 sequence number 0 source ipv4 192.168.1.16 lifetime 2000 acknowledgment required flag 0) 
t 1.02805 /NodeList/16/DeviceList/0/$ns3::WifiNetDevice/Phy/State/Tx DsssRate1Mbps ns3::WifiMacHeader (DATA ToDS=0, FromDS=0, MoreFrag=0, Retry=0, PowerManagement=0, MoreData=0 Duration/ID=0us, DA=ff:ff:ff:ff:ff:ff, SA=00:00:00:00:00:11, BSSID=00:00:00:00:00:11, FragNumber=0, SeqNumber=1) ns3::LlcSnapHeader (type 0x800) ns3::Ipv4Header (tos 0x0 DSCP Default ECN Not-ECT ttl 1 id 1 protocol 17 offset (bytes) 0 flags [none] length: 48 192.168.1.17 > 192.168.1.255) ns3::UdpHeader (length: 28 654 > 654) ns3::aodv::TypeHeader (RREP) ns3::aodv::RrepHeader (destination: ipv4 192.168.1.17 sequence number 0 source ipv4 192.168.1.17 lifetime 2000 acknowledgment required flag 0) 
t 1.03305 /NodeList/11/DeviceList/0/$ns3::WifiNetDevice/Phy/State/Tx DsssRate1Mbps ns3::WifiMacHeader (DATA ToDS=0, FromDS=0, MoreFrag=0, Retry=0, PowerManagement=0, MoreData=0 Duration/ID=0us, DA=ff:ff:ff:ff:ff:ff, SA=00:00:00:00:00:0c, BSSID=00:00:00:00:00:0c, FragNumber=0, SeqNumber=1) ns3::LlcSnapHeader (type 0x800) ns3::Ipv4Header (tos 0x0 DSCP Default ECN Not-ECT ttl 1 id 1 protocol 17 offset (bytes) 0 flags [none] length: 48 192.168.1.12 > 192.168.1.255) ns3::UdpHeader (length: 28 654 > 654) ns3::aodv::TypeHeader (RREP) ns3::aodv::RrepHeader (destination: ipv4 192.168.1.12 sequence number 0 source ipv4 192.168.1.12 lifetime 2000 acknowledgment required flag 0) 
t 1.04305 /NodeList/3/DeviceList/0/$ns3::WifiNetDevice/Phy/State/Tx DsssRate1Mbps ns3::WifiMacHeader (DATA ToDS=0, FromDS=0, MoreFrag=0, Retry=0, PowerManagement=0, MoreData=0 Duration/ID=0us, DA=ff:ff:ff:ff:ff:ff, SA=00:00:00:00:00:04, BSSID=00:00:00:00:00:04, FragNumber=0, SeqNumber=1) ns3::LlcSnapHeader (type 0x800) ns3::Ipv4Header (tos 0x0 DSCP Default ECN Not-ECT ttl 1 id 1 protocol 17 offset (bytes) 0 flags [none] length: 48 192.168.1.4 > 192.168.1.255) ns3::UdpHeader (length: 28 654 > 654) ns3::aodv::TypeHeader (RREP) ns3::aodv::RrepHeader (destination: ipv4 192.168.1.4 sequence number 0 source ipv4 192.168.1.4 lifetime 2000 acknowledgment required flag 0) 
t 1.05405 /NodeList/13/DeviceList/0/$ns3::WifiNetDevice/Phy/State/Tx DsssRate1Mbps ns3::WifiMacHeader (DATA ToDS=0, FromDS=0, MoreFrag=0, Retry=0, PowerManagement=0, MoreData=0 Duration/ID=0us, DA=ff:ff:ff:ff:ff:ff, SA=00:00:00:00:00:0e, BSSID=00:00:00:00:00:0e, FragNumber=0, SeqNumber=1) ns3::LlcSnapHeader (type 0x800) ns3::Ipv4Header (tos 0x0 DSCP Default ECN Not-ECT ttl 1 id 1 protocol 17 offset (bytes) 0 flags [none] length: 48 192.168.1.14 > 192.168.1.255) ns3::UdpHeader (length: 28 654 > 654) ns3::aodv::TypeHeader (RREP) ns3::aodv::RrepHeader (destination: ipv4 192.168.1.14 sequence number 0 source ipv4 192.168.1.14 lifetime 2000 acknowledgment required flag 0) 
t 1.06005 /NodeList/10/DeviceList/0/$ns3::WifiNetDevice/Phy/State/Tx DsssRate1Mbps ns3::WifiMacHeader (DATA ToDS=0, FromDS=0, MoreFrag=0, Retry=0, PowerManagement=0, MoreData=0 Duration/ID=0us, DA=ff:ff:ff:ff:ff:ff, SA=00:00:00:00:00:0b, BSSID=00:00:00:00:00:0b, FragNumber=0, SeqNumber=1) ns3::LlcSnapHeader (type 0x800) ns3::Ipv4Header (tos 0x0 DSCP Default ECN Not-ECT ttl 1 id 1 protocol 17 offset (bytes) 0 flags [none] length: 48 192.168.1.11 > 192.168.1.255) ns3::UdpHeader (length: 28 654 > 654) ns3::aodv::TypeHeader (RREP) ns3::aodv::RrepHeader (destination: ipv4 192.168.1.11 sequence number 0 source ipv4 192.168.1.11 lifetime 2000 acknowledgment required flag 0) 
t 1.06805 /NodeList/5/DeviceList/0/$ns3::WifiNetDevice/Phy/State/Tx DsssRate1Mbps ns3::WifiMacHeader (DATA ToDS=0, FromDS=0, MoreFrag=0, Retry=0, PowerManagement=0, MoreData=0 Duration/ID=0us, DA=ff:ff:ff:ff:ff:ff, SA=00:00:00:00:00:06, BSSID=00:00:00:00:00:06, FragNumber=0, SeqNumber=1) ns3::LlcSnapHeader (type 0x800) ns3::Ipv4Header (tos 0x0 DSCP Default ECN Not-ECT ttl 1 id 1 protocol 17 offset (bytes) 0 flags [none] length: 48 192.168.1.6 > 192.168.1.255) ns3::UdpHeader (length: 28 654 > 654) ns3::aodv::TypeHeader (RREP) ns3::aodv::RrepHeader (destination: ipv4 192.168.1.6 sequence number 0 source ipv4 192.168.1.6 lifetime 2000 acknowledgment required flag 0) 
t 1.06805 /NodeList/1/DeviceList/0/$ns3::WifiNetDevice/Phy/State/Tx DsssRate1Mbps ns3::WifiMacHeader (DATA ToDS=0, FromDS=0, MoreFrag=0, Retry=0, PowerManagement=0, MoreData=0 Duration/ID=0us, DA=ff:ff:ff:ff:ff:ff, SA=00:00:00:00:00:02, BSSID=00:00:00:00:00:02, FragNumber=0, SeqNumber=1) ns3::LlcSnapHeader (type 0x800) ns3::Ipv4Header (tos 0x0 DSCP Default ECN Not-ECT ttl 1 id 1 protocol 17 offset (bytes) 0 flags [none] length: 48 192.168.1.2 > 192.168.1.255) ns3::UdpHeader (length: 28 654 > 654) ns3::aodv::TypeHeader (RREP) ns3::aodv::RrepHeader (destination: ipv4 192.168.1.2 sequence number 0 source ipv4 192.168.1.2 lifetime 2000 acknowledgment required flag 0) 
t 1.07905 /NodeList/19/DeviceList/0/$ns3::WifiNetDevice/Phy/State/Tx DsssRate1Mbps ns3::WifiMacHeader (DATA ToDS=0, FromDS=0, MoreFrag=0, Retry=0, PowerManagement=0, MoreData=0 Duration/ID=0us, DA=ff:ff:ff:ff:ff:ff, SA=00:00:00:00:00:14, BSSID=00:00:00:00:00:14, FragNumber=0, SeqNumber=1) ns3::LlcSnapHeader (type 0x800) ns3::Ipv4Header (tos 0x0 DSCP Default ECN Not-ECT ttl 1 id 1 protocol 17 offset (bytes) 0 flags [none] length: 48 192.168.1.20 > 192.168.1.255) ns3::UdpHeader (length: 28 654 > 654) ns3::aodv::TypeHeader (RREP) ns3::aodv::RrepHeader (destination: ipv4 192.168.1.20 sequence number 0 source ipv4 192.168.1.20 lifetime 2000 acknowledgment required flag 0) 
t 1.08005 /NodeList/2/DeviceList/0/$ns3::WifiNetDevice/Phy/State/Tx DsssRate1Mbps ns3::WifiMacHeader (DATA ToDS=0, FromDS=0, MoreFrag=0, Retry=0, PowerManagement=0, MoreData=0 Duration/ID=0us, DA=ff:ff:ff:ff:ff:ff, SA=00:00:00:00:00:03, BSSID=00:00:00:00:00:03, FragNumber=0, SeqNumber=1) ns3::LlcSnapHeader (type 0x800) ns3::Ipv4Header (tos 0x0 DSCP Default ECN Not-ECT ttl 1 id 1 protocol 17 offset (bytes) 0 flags [none] length: 48 192.168.1.3 > 192.168.1.255) ns3::UdpHeader (length: 28 654 > 654) ns3::aodv::TypeHeader (RREP) ns3::aodv::RrepHeader (destination: ipv4 192.168.1.3 sequence number 0 source ipv4 192.168.1.3 lifetime 2000 acknowledgment required flag 0) 
t 1.08205 /NodeList/12/DeviceList/0/$ns3::WifiNetDevice/Phy/State/Tx DsssRate1Mbps ns3::WifiMacHeader (DATA ToDS=0, FromDS=0, MoreFrag=0, Retry=0, PowerManagement=0, MoreData=0 Duration/ID=0us, DA=ff:ff:ff:ff:ff:ff, SA=00:00:00:00:00:0d, BSSID=00:00:00:00:00:0d, FragNumber=0, SeqNumber=1) ns3::LlcSnapHeader (type 0x800) ns3::Ipv4Header (tos 0x0 DSCP Default ECN Not-ECT ttl 1 id 1 protocol 17 offset (bytes) 0 flags [none] length: 48 192.168.1.13 > 192.168.1.255) ns3::UdpHeader (length: 28 654 > 654) ns3::aodv::TypeHeader (RREP) ns3::aodv::RrepHeader (destination: ipv4 192.168.1.13 sequence number 0 source ipv4 192.168.1.13 lifetime 2000 acknowledgment required flag 0) 
t 1.09405 /NodeList/7/DeviceList/0/$ns3::WifiNetDevice/Phy/State/Tx DsssRate1Mbps ns3::WifiMacHeader (DATA ToDS=0, FromDS=0, MoreFrag=0, Retry=0, PowerManagement=0, MoreData=0 Duration/ID=0us, DA=ff:ff:ff:ff:ff:ff, SA=00:00:00:00:00:08, BSSID=00:00:00:00:00:08, FragNumber=0, SeqNumber=1) ns3::LlcSnapHeader (type 0x800) ns3::Ipv4Header (tos 0x0 DSCP Default ECN Not-ECT ttl 1 id 1 protocol 17 offset (bytes) 0 flags [none] length: 48 192.168.1.8 > 192.168.1.255) ns3::UdpHeader (length: 28 654 > 654) ns3::aodv::TypeHeader (RREP) ns3::aodv::RrepHeader (destination: ipv4 192.168.1.8 sequence number 0 source ipv4 192.168.1.8 lifetime 2000 acknowledgment required flag 0) 
t 1.09505 /NodeList/4/DeviceList/0/$ns3::WifiNetDevice/Phy/State/Tx DsssRate1Mbps ns3::WifiMacHeader (DATA ToDS=0, FromDS=0, MoreFrag=0, Retry=0, PowerManagement=0, MoreData=0 Duration/ID=0us, DA=ff:ff:ff:ff:ff:ff, SA=00:00:00:00:00:05, BSSID=00:00:00:00:00:05, FragNumber=0, SeqNumber=1) ns3::LlcSnapHeader (type 0x800) ns3::Ipv4Header (tos 0x0 DSCP Default ECN Not-ECT ttl 1 id 1 protocol 17 offset (bytes) 0 flags [none] length: 48 192.168.1.5 > 192.168.1.255) ns3::UdpHeader (length: 28 654 > 654) ns3::aodv::TypeHeader (RREP) ns3::aodv::RrepHeader (destination: ipv4 192.168.1.5 sequence number 0 source ipv4 192.168.1.5 lifetime 2000 acknowledgment required flag 0) 
t 2.00105 /NodeList/9/DeviceList/0/$ns3::WifiNetDevice/Phy/State/Tx DsssRate1Mbps ns3::WifiMacHeader (DATA ToDS=0, FromDS=0, MoreFrag=0, Retry=0, PowerManagement=0, MoreData=0 Duration/ID=0us, DA=ff:ff:ff:ff:ff:ff, SA=00:00:00:00:00:0a, BSSID=00:00:00:00:00:0a, FragNumber=0, SeqNumber=2) ns3::LlcSnapHeader (type 0x800) ns3::Ipv4Header (tos 0x0 DSCP Default ECN Not-ECT ttl 1 id 2 protocol 17 offset (bytes) 0 flags [none] length: 48 192.168.1.10 > 192.168.1.255) ns3::UdpHeader (length: 28 654 > 654) ns3::aodv::TypeHeader (RREP) ns3::aodv::RrepHeader (destination: ipv4 192.168.1.10 sequence number 0 source ipv4 192.168.1.10 lifetime 2000 acknowledgment required flag 0) 
t 2.01305 /NodeList/18/DeviceList/0/$ns3::WifiNetDevice/Phy/State/Tx DsssRate1Mbps ns3::WifiMacHeader (DATA ToDS=0, FromDS=0, MoreFrag=0, Retry=0, PowerManagement=0, MoreData=0 Duration/ID=0us, DA=ff:ff:ff:ff:ff:ff, SA=00:00:00:00:00:13, BSSID=00:00:00:00:00:13, FragNumber=0, SeqNumber=2) ns3::LlcSnapHeader (type 0x800) ns3::Ipv4Header (tos 0x0 DSCP Default ECN Not-ECT ttl 1 id 2 protocol 17 offset (bytes) 0 flags [none] length: 48 192.168.1.19 > 192.168.1.255) ns3::UdpHeader (length: 28 654 > 654) ns3::aodv::TypeHeader (RREP) ns3::aodv::RrepHeader (destination: ipv4 192.168.1.19 sequence number 0 source ipv4 192.168.1.19 lifetime 2000 acknowledgment required flag 0) 
t 2.01305 /NodeList/14/DeviceList/0/$ns3::WifiNetDevice/Phy/State/Tx DsssRate1Mbps ns3::WifiMacHeader (DATA ToDS=0, FromDS=0, MoreFrag=0, Retry=0, PowerManagement=0, MoreData=0 Duration/ID=0us, DA=ff:ff:ff:ff:ff:ff, SA=00:00:00:00:00:0f, BSSID=00:00:00:00:00:0f, FragNumber=0, SeqNumber=2) ns3::LlcSnapHeader (type 0x800) ns3::Ipv4Header (tos 0x0 DSCP Default ECN Not-ECT ttl 1 id 2 protocol 17 offset (bytes) 0 flags [none] length: 48 192.168.1.15 > 192.168.1.255) ns3::UdpHeader (length: 28 654 > 654) ns3::aodv::TypeHeader (RREP) ns3::aodv::RrepHeader (destination: ipv4 192.168.1.15 sequence number 0 source ipv4 192.168.1.15 lifetime 2000 acknowledgment required flag 0) 
t 2.01405 /NodeList/17/DeviceList/0/$ns3::WifiNetDevice/Phy/State/Tx DsssRate1Mbps ns3::WifiMacHeader (DATA ToDS=0, FromDS=0, MoreFrag=0, Retry=0, PowerManagement=0, MoreData=0 Duration/ID=0us, DA=ff:ff:ff:ff:ff:ff, SA=00:00:00:00:00:12, BSSID=00:00:00:00:00:12, FragNumber=0, SeqNumber=2) ns3::LlcSnapHeader (type 0x800) ns3::Ipv4Header (tos 0x0 DSCP Default ECN Not-ECT ttl 1 id 2 protocol 17 offset (bytes) 0 flags [none] length: 48 192.168.1.18 > 192.168.1.255) ns3::UdpHeader (length: 28 654 > 654) ns3::aodv::TypeHeader (RREP) ns3::aodv::RrepHeader (destination: ipv4 192.168.1.18 sequence number 0 source ipv4 192.168.1.18 lifetime 2000 acknowledgment required flag 0) 